title                   = MD simulation
; Run parameters
integrator              = md        ; leap-frog integrator
nsteps                  = 500000    ; 2 * 500000 = 1000 ps (1 ns)
dt                      = 0.002     ; 2 fs
; Output control
nstxout                 = 0         ; save coordinates every 1.0 ps .ttr
nstvout                 = 0         ; save velocities every 1.0 ps .ttr
nstenergy               = 1000      ; save energies every 1.0 ps .ttr
nstlog                  = 500000    ; update log file every 100.0 ps
nstxout-compressed      = 250       ; save compressed coordinates every 10.0 ps
nstcalcenergy           = 100

; Bond parameters
continuation            = yes       ; Restarting after NPT
constraint-algorithm    = lincs     ; holonomic constraints
constraints             = h-bonds   ; h bonds (even heavy atom-H bonds) constrained
lincs-iter              = 1         ; accuracy of LINCS

; Neighborsearching
cutoff-scheme           = Verlet
nstlist                 = 10        ; 20 fs, largely irrelevant with Verlet
rcoulomb                = 1.0       ; short-range electrostatic cutoff (in nm)
vdwtype                 = Cut-off
rvdw                    = 1.0       ; Short-range Van der Waals cut-off
vdw-modifier            = Potential-Shift
rlist                   = 1.0

; Electrostatics
coulombtype             = PME       ; Particle Mesh Ewald for long-range electrostatics
pme-order               = 4         ; cubic interpolation
fourierspacing          = 0.125      ; grid spacing for FFT
rcoulomb                = 1.0       ; short-range electrostatic cutoff (in nm)

; Temperature coupling is on
tcoupl                  = V-rescale             ; modified Berendsen thermostat
tc-grps                 = Protein Non-Protein   ; two coupling groups - more accurate
tau-t                   = 0.1     0.1           ; time constant, in ps
ref-t                   = 298.15  298.15        ; reference temperature, one for each group, in K

; Pressure coupling is on
pcoupl                  = C-rescale ; Pressure coupling on in NPT
pcoupltype              = isotropic ; uniform scaling of box vectors
tau-p                   = 2.0       ; time constant, in ps
ref-p                   = 1.0       ; reference pressure, in bar
compressibility         = 4.5e-5    ; isothermal compressibility of water, bar^-1

; Periodic boundary conditions
pbc                     = xyz       ; 3-D PBC

; Dispersion correction
DispCorr                = EnerPres  ; account for cut-off vdW scheme

; Velocity generation
gen-vel                 = no        ; Velocity generation is off
