title                   = NVT equilibration
define                  = -DPOSRES -DPOSRES_HEAVY  ; position restrain the protein

; Run parameters
integrator              = md        ; leap-frog integrator
nsteps                  = 50000     ; 2 * 500 = 1 ps
dt                      = 0.002     ; 2 fs

; Output control
nstxout                 = 0         ; save coordinates every 1.0 ps .ttr
nstvout                 = 0         ; save velocities every 1.0 ps .ttr
nstenergy               = 0         ; save energies every 1.0 ps .ttr
nstlog                  = 0         ; update log file every 1.0 ps
nstxout-compressed      = 0         ; save coordinates every 1.0 ps .xtc

; Bond parameters
continuation            = no        ; first dynamics run
constraint-algorithm    = lincs     ; holonomic constraints
constraints             = h-bonds   ; h bonds (even heavy atom-H bonds) constrained
lincs-iter              = 1         ; accuracy of LINCS
lincs-order             = 4         ; also related to accuracy

; Neighborsearching
cutoff-scheme           = Verlet
nstlist                 = 10        ; 20 fs, largely irrelevant with Verlet
vdwtype                 = Cut-off
rvdw                    = 1.0       ; Short-range Van der Waals cut-off
vdw-modifier            = Potential-Shift
rlist                   = 1.0

; Electrostatics
coulombtype             = PME       ; Particle Mesh Ewald for long-range electrostatics
pme-order               = 4         ; cubic interpolation
fourierspacing          = 0.125     ; grid spacing for FFT
rcoulomb                = 1.0       ; Short-range electrostatic cut-off

; Temperature coupling is on
tcoupl                  = V-rescale             ; modified Berendsen thermostat
tc-grps                 = Protein Non-Protein   ; two coupling groups - more accurate
tau-t                   = 0.1     0.1           ; time constant, in ps
ref-t                   = 298.15  298.15        ; reference temperature, one for each group, in K

; Pressure coupling is off
pcoupl                  = no        ; no pressure coupling in NVT

; Periodic boundary conditions
pbc                     = xyz       ; 3-D PBC

; Dispersion correction
DispCorr                = EnerPres  ; account for cut-off vdW scheme

; Velocity generation
gen-vel                 = yes       ; assign velocities from Maxwell distribution
gen-temp                = 298.15    ; temperature for Maxwell distribution
gen-seed                = -1        ; generate a random seed
